ITEM: TIMESTEP
0
ITEM: NUMBER OF ATOMS
48
ITEM: BOX BOUNDS pp pp pp
0 9
0 13.5
0 9
ITEM: ATOMS id type x y z 
1 1 8.60423e-16 9.71445e-16 5.44703e-16 
8 1 4.5 2.25 2.25 
3 1 2.25 6.92155e-16 2.25 
4 1 1.19349e-15 2.25 2.25 
5 1 4.5 6.31439e-16 5.55044e-16 
6 1 6.75 2.25 2.2031e-16 
7 1 6.75 1.94289e-16 2.25 
9 1 1.58207e-15 0 4.5 
10 1 2.25 2.25 4.5 
13 1 4.5 8.11851e-16 4.5 
14 1 6.75 2.25 4.5 
16 1 4.5 2.25 6.75 
15 1 6.75 8.04912e-16 6.75 
11 1 2.25 1.15012e-15 6.75 
12 1 1.41553e-15 2.25 6.75 
2 1 2.25 2.25 9 
17 1 1.22125e-15 4.5 2.81025e-16 
37 1 4.5 9 6.93879e-16 
19 1 2.25 4.5 2.25 
20 1 2.22045e-15 6.75 2.25 
21 1 4.5 4.5 1.05465e-15 
22 1 6.75 6.75 9.4022e-16 
23 1 6.75 4.5 2.25 
24 1 4.5 6.75 2.25 
33 1 1.33227e-15 9 0 
25 1 1.02696e-15 4.5 4.5 
41 1 1.27676e-15 9 4.5 
26 1 2.25 6.75 4.5 
29 1 4.5 4.5 4.5 
30 1 6.75 6.75 4.5 
32 1 4.5 6.75 6.75 
31 1 6.75 4.5 6.75 
27 1 2.25 4.5 6.75 
28 1 2.02616e-15 6.75 6.75 
18 1 2.25 6.75 9 
40 1 4.5 11.25 2.25 
34 1 2.25 11.25 1.02175e-15 
35 1 2.25 9 2.25 
36 1 6.66134e-16 11.25 2.25 
39 1 6.75 9 2.25 
38 1 6.75 11.25 1.36349e-15 
42 1 2.25 11.25 4.5 
45 1 4.5 9 4.5 
48 1 4.5 11.25 6.75 
47 1 6.75 9 6.75 
43 1 2.25 9 6.75 
44 1 6.66134e-16 11.25 6.75 
46 1 6.75 11.25 4.5 
